ITEM: TIMESTEP
0
ITEM: NUMBER OF ATOMS
80
ITEM: BOX BOUNDS pp pp pp
0.0000000000000000e+00 1.0000000000000000e+01
0.0000000000000000e+00 1.0000000000000000e+01
0.0000000000000000e+00 1.0000000000000000e+01
ITEM: ATOMS id type xs ys zs
1 1 0.233475 0.0123177 0.0230257
2 1 0.99351 0.915439 0.785837
3 1 0.57082 0.76924 0.62357
4 1 0.344224 0.375633 0.267112
5 1 0.351737 0.640945 0.36378
6 1 0.0528071 0.528658 0.157699
7 1 0.453819 0.329279 0.192781
8 1 0.0647341 0.986526 0.546087
9 1 0.0891291 0.993302 0.43373
10 1 0.701564 0.18674 0.543702
11 1 0.99543 0.189962 0.684262
12 1 0.399384 0.438969 0.747021
13 1 0.178069 0.810782 0.806098
14 1 0.0974612 0.029698 0.13397
15 1 0.637436 0.380333 0.249391
16 1 0.506725 0.521158 0.103527
17 1 0.983599 0.348591 0.768327
18 1 0.265346 0.666443 0.915123
19 1 0.46638 0.440824 0.92143
20 1 0.467304 0.977231 0.320033
21 1 0.794185 0.865517 0.74264
22 1 0.557495 0.82677 0.531226
23 1 0.307392 0.343447 0.311325
24 1 0.446574 0.566767 0.652529
25 1 0.0629196 0.489764 0.456239
26 1 0.00950206 0.701041 0.388258
27 1 0.446893 0.936165 0.125152
28 1 0.428291 0.292522 0.410974
29 1 0.24367 0.365664 0.710236
30 1 0.935564 0.0178186 0.477945
31 1 0.821594 0.532702 0.125983
32 1 0.400317 0.128804 0.812423
33 1 0.391687 0.0762538 0.597628
34 1 0.336661 0.253608 0.386465
35 1 0.314073 0.616541 0.204218
36 1 0.284464 0.989123 0.196386
37 1 0.661838 0.514178 0.784562
38 1 0.127171 0.358138 0.222366
39 1 0.298814 0.168201 0.95643
40 1 0.725745 0.589309 0.517611
41 1 0.489282 0.365996 0.293294
42 1 0.389802 0.408486 0.429305
43 1 0.321911 0.352657 0.108629
44 1 0.729066 0.409354 0.0101357
45 1 0.351195 0.536514 0.191758
46 1 0.870287 0.912891 0.964883
47 1 0.794445 0.233147 0.509918
48 1 0.197232 0.871292 0.812339
49 1 0.98467 0.344239 0.628409
50 1 0.674593 0.892433 0.122906
51 2 0.143796 0.774516 0.285479
52 2 0.0409741 0.651521 0.114072
53 2 0.203458 0.525651 0.614608
54 2 0.709563 0.622672 0.249662
55 2 0.0743972 0.394301 0.0152987
56 2 0.125493 0.160293 0.0424065
57 2 0.726529 0.76569 0.959275
58 2 0.542466 0.224301 0.820994
59 2 0.448394 0.15981 0.920247
60 2 0.59922 0.0959484 0.604266
61 2 0.900083 0.694484 0.200554
62 2 0.718416 0.425611 0.240997
63 2 0.444214 0.901514 0.753863
64 2 0.17121 0.530405 0.518112
65 2 0.914517 0.29415 0.779138
66 2 0.97117 0.462138 0.153611
67 2 0.745113 0.118796 0.596144
68 2 0.390711 0.682311 0.603578
69 2 0.334627 0.070367 0.657654
70 2 0.192716 0.976689 0.208605
71 2 0.0273798 0.171839 0.0936557
72 2 0.0707692 0.417884 0.377207
73 2 0.719473 0.184957 0.580643
74 2 0.861968 0.104071 0.120447
75 2 0.350132 0.668091 0.609959
76 2 0.581157 0.503446 0.421311
77 2 0.981343 0.434645 0.0805127
78 2 0.176584 0.847105 0.301712
79 2 0.86852 0.207703 0.870003
80 2 0.148315 0.732529 0.608372
ITEM: TIMESTEP
100
ITEM: NUMBER OF ATOMS
80
ITEM: BOX BOUNDS pp pp pp
0.0000000000000000e+00 1.0000000000000000e+01
0.0000000000000000e+00 1.0000000000000000e+01
0.0000000000000000e+00 1.0000000000000000e+01
ITEM: ATOMS id type xs ys zs
1 1 0.233475 0.0123177 0.0230257
2 1 0.99351 0.915439 0.785837
3 1 0.57082 0.76924 0.62357
4 1 0.344224 0.375633 0.267112
5 1 0.351737 0.640945 0.36378
6 1 0.0528071 0.528658 0.157699
7 1 0.453819 0.329279 0.192781
8 1 0.0647341 0.986526 0.546087
9 1 0.0891291 0.993302 0.43373
10 1 0.701564 0.18674 0.543702
11 1 0.99543 0.189962 0.684262
12 1 0.399384 0.438969 0.747021
13 1 0.178069 0.810782 0.806098
14 1 0.0974612 0.029698 0.13397
15 1 0.637436 0.380333 0.249391
16 1 0.506725 0.521158 0.103527
17 1 0.983599 0.348591 0.768327
18 1 0.265346 0.666443 0.915123
19 1 0.46638 0.440824 0.92143
20 1 0.467304 0.977231 0.320033
21 1 0.794185 0.865517 0.74264
22 1 0.557495 0.82677 0.531226
23 1 0.307392 0.343447 0.311325
24 1 0.446574 0.566767 0.652529
25 1 0.0629196 0.489764 0.456239
26 1 0.00950206 0.701041 0.388258
27 1 0.446893 0.936165 0.125152
28 1 0.428291 0.292522 0.410974
29 1 0.24367 0.365664 0.710236
30 1 0.935564 0.0178186 0.477945
31 1 0.821594 0.532702 0.125983
32 1 0.400317 0.128804 0.812423
33 1 0.391687 0.0762538 0.597628
34 1 0.336661 0.253608 0.386465
35 1 0.314073 0.616541 0.204218
36 1 0.284464 0.989123 0.196386
37 1 0.661838 0.514178 0.784562
38 1 0.127171 0.358138 0.222366
39 1 0.298814 0.168201 0.95643
40 1 0.725745 0.589309 0.517611
41 1 0.489282 0.365996 0.293294
42 1 0.389802 0.408486 0.429305
43 1 0.321911 0.352657 0.108629
44 1 0.729066 0.409354 0.0101357
45 1 0.351195 0.536514 0.191758
46 1 0.870287 0.912891 0.964883
47 1 0.794445 0.233147 0.509918
48 1 0.197232 0.871292 0.812339
49 1 0.98467 0.344239 0.628409
50 1 0.674593 0.892433 0.122906
51 2 0.143796 0.774516 0.285479
52 2 0.0409741 0.651521 0.114072
53 2 0.203458 0.525651 0.614608
54 2 0.709563 0.622672 0.249662
55 2 0.0743972 0.394301 0.0152987
56 2 0.125493 0.160293 0.0424065
57 2 0.726529 0.76569 0.959275
58 2 0.542466 0.224301 0.820994
59 2 0.448394 0.15981 0.920247
60 2 0.59922 0.0959484 0.604266
61 2 0.900083 0.694484 0.200554
62 2 0.718416 0.425611 0.240997
63 2 0.444214 0.901514 0.753863
64 2 0.17121 0.530405 0.518112
65 2 0.914517 0.29415 0.779138
66 2 0.97117 0.462138 0.153611
67 2 0.745113 0.118796 0.596144
68 2 0.390711 0.682311 0.603578
69 2 0.334627 0.070367 0.657654
70 2 0.192716 0.976689 0.208605
71 2 0.0273798 0.171839 0.0936557
72 2 0.0707692 0.417884 0.377207
73 2 0.719473 0.184957 0.580643
74 2 0.861968 0.104071 0.120447
75 2 0.350132 0.668091 0.609959
76 2 0.581157 0.503446 0.421311
77 2 0.981343 0.434645 0.0805127
78 2 0.176584 0.847105 0.301712
79 2 0.86852 0.207703 0.870003
80 2 0.148315 0.732529 0.608372
